151
Lattice="11.14400287 0.0 0.0 0.0 9.65098959 0.0 0.0 0.0 36.32428018" Properties=species:S:1:pos:R:3:DFT_forces:R:3 DFT_energy=-796.21823858 pbc="T T T"
Pt       0.00000000       0.00000000       0.00000000       0.03821980      -0.00870191      -0.20400966
Pt       2.78600072       0.00000000       0.00000000       0.00540887       0.00075564      -0.35007324
Pt       5.57200143       0.00000000       0.00000000      -0.02192704       0.01535915      -0.30379952
Pt       8.35800215       0.00000000       0.00000000       0.01250710       0.02089147      -0.26006855
Pt       1.39300036       2.41274740       0.00000000       0.03050435      -0.04065856      -0.35776608
Pt       4.17900108       2.41274740       0.00000000      -0.06086505       0.00113763      -0.38510066
Pt       6.96500179       2.41274740       0.00000000      -0.01260124      -0.04717694      -0.24553731
Pt       9.75100251       2.41274740       0.00000000       0.04752914       0.02295998      -0.31593009
Pt       0.00000000       4.82549480       0.00000000      -0.05086091      -0.04458479      -0.29092347
Pt       2.78600072       4.82549480       0.00000000      -0.00291907       0.01127752      -0.24273292
Pt       5.57200143       4.82549480       0.00000000      -0.01667957       0.03230405      -0.26282944
Pt       8.35800215       4.82549480       0.00000000       0.00970512       0.02551493      -0.28674997
Pt       1.39300036       7.23824219       0.00000000      -0.06150438      -0.06307702      -0.30117499
Pt       4.17900108       7.23824219       0.00000000      -0.00361270       0.01921532      -0.29965146
Pt       6.96500179       7.23824219       0.00000000      -0.01078084      -0.00087973      -0.35532913
Pt       9.75100251       7.23824219       0.00000000      -0.07252560      -0.02413870      -0.35419922
Pt       1.39300036       0.80424910       2.27476010      -0.11408544      -0.04269877       0.34163381
Pt       4.17900108       0.80424910       2.27476010       0.17045471      -0.13989453       0.33202814
Pt       6.96500179       0.80424910       2.27476010      -0.00396464       0.14309463       0.52451967
Pt       9.75100251       0.80424910       2.27476010      -0.17311576      -0.17571112       0.45320969
Pt       0.00000000       3.21699650       2.27476010      -0.02734241      -0.02595995       0.30548813
Pt       2.78600072       3.21699650       2.27476010       0.06995611       0.24479186       0.35751984
Pt       5.57200143       3.21699650       2.27476010       0.02248048       0.12943583       0.40445095
Pt       8.35800215       3.21699650       2.27476010       0.02997085      -0.00662265       0.57708922
Pt       1.39300036       5.62974390       2.27476010       0.31223109      -0.01658214       0.16592026
Pt       4.17900108       5.62974390       2.27476010       0.00089230      -0.09028071       0.72256057
Pt       6.96500179       5.62974390       2.27476010       0.07400942      -0.22872932       0.32477961
Pt       9.75100251       5.62974390       2.27476010       0.00366224      -0.17045807       0.34989572
Pt       0.00000000       8.04249129       2.27476010       0.06901686       0.17746639      -0.34518978
Pt       2.78600072       8.04249129       2.27476010       0.03439474      -0.05222938       0.34740567
Pt       5.57200143       8.04249129       2.27476010      -0.04052808      -0.00145986       0.51685525
Pt       8.35800215       8.04249129       2.27476010       0.14183245       0.06139501      -0.07846874
Pt      11.06890878       1.61625277       4.54516019       0.66860723       0.04206316      -0.37817168
Pt       2.76612249       1.58487335       4.48179212      -0.26647585       0.19430510       0.69128303
Pt       5.55268910       1.63647121       4.56763076       0.20988519      -0.74669811      -0.14914862
Pt       8.35186638       1.60193505       4.59389394      -0.00896919      -0.28567907      -0.91723593
Pt       1.34112848       4.06965149       4.55719406       0.61679037      -0.19888107      -0.18435562
Pt       4.19995191       3.99361800       4.62332096      -0.29619754       0.35866997      -0.39364535
Pt       7.03644009       4.02717777       4.62799227      -0.13164243       0.57169093      -0.52163172
Pt       9.76817743       4.01187072       4.60150242      -0.40619768       0.40440095      -0.13942586
Pt       0.05452081       6.49454572       4.47300782      -0.08253021      -1.15914362       0.45078709
Pt       2.85466104       6.45418953       4.60547775       0.32255148      -0.47519121      -0.37379840
Pt       5.66568595       6.39076139       4.56330962      -0.70418668       0.49293893       0.24855235
Pt       8.37548152       6.45627443       4.53016517       0.18360955      -0.50508323       0.53894994
Pt       1.41394462       8.84923035       4.55550172       0.50273660       0.48044440      -0.41608659
Pt       4.19739035       8.81670111       4.59834257       0.59712581       0.11436569       0.18570432
Pt       7.05611995       8.86577465       4.52842342      -0.83358106      -0.05394362       0.41990517
Pt       9.84606855       8.69995000       4.57841943      -1.00672695       1.47180192      -0.42233510
Pt      11.13539312       0.09483854       6.76526969       0.06040201      -0.22231194       0.76308804
Pt       2.71824106       9.64788689       6.94960233       0.43947999       0.24475317       0.35485729
Pt       5.52953409       9.60564490       7.12975006       0.34618390       0.29041997      -0.57305409
Pt       8.29053981       0.06271850       6.89925906      -0.38226404      -0.47799889      -0.30821899
Pt       1.34822821       2.47131057       6.91496422      -0.05793243      -0.51005966      -0.15278454
Pt       4.17666362       2.33135935       6.83196542      -0.16363996       0.38715735       0.04546895
Pt       6.97454139       2.53405387       6.79044677      -0.58089533      -0.60275608      -0.05703300
Pt       9.66778166       2.31179756       6.87686114       0.44934858       1.15111316       0.35877852
Pt      11.09325854       4.90593772       6.83541260      -0.37613584       0.16898947       0.06676433
Pt       2.70378717       4.87293124       6.96194641       0.09602490      -0.18808547      -0.03252536
Pt       5.51948343       4.88470159       6.96485017       0.08883930      -0.23387858       0.13915283
Pt       8.32211077       4.93530858       7.07290038       0.74355054       0.39608003       0.93773611
Pt       1.36219265       7.29283446       6.77987786      -0.27553121      -0.14308842       0.61831436
Pt       4.03719598       7.25404993       7.08805450       0.68334170      -0.04912802      -0.34377853
Pt       6.94794801       7.28056506       6.95031211       0.25724829       0.37569428      -0.41681358
Pt       9.81272034       7.41344992       6.95434955      -0.60872924      -0.92908607       0.02978047
H        5.87828265       0.12415747       8.62890940      -0.01364644      -0.05314713      -0.06255390
H        5.03865091       6.07078910       8.07507128      -0.07719592      -0.05385613      -0.15068015
H        7.26115712       2.81108620       8.73983685       0.33901351      -0.34317669      -1.78401079
H        8.73813936       5.47200281       8.59104715      -0.41734953      -0.45615556      -1.35799767
H        3.16889974       9.36683483       8.43464352      -0.38276199       0.16524312      -0.23574166
H        1.54633861       3.73319010       7.97668588       0.27667238       0.26606283       0.09199179
H        1.09677059       4.55128644      13.64590093       0.46006003       0.42028204      -0.60443894
H        2.25530826       4.37177900      12.47555005      -0.93186123       0.66599014       0.61737423
H       10.76507802       9.17796535      10.78533371      -1.21149220      -0.14238754      -0.16671616
H        0.89931390       0.02086438      10.21383001       0.31631425      -0.44778308       0.23818879
H        8.17795608       3.68578531      10.58426720      -1.22130386      -0.89403052      -1.61138673
H        7.32617670       2.08419702      10.14073248      -0.17935406      -1.28911460      -0.23906988
H        7.75073111       5.54320366      13.85757740      -0.23276735      -0.26441717      -0.56289559
H        8.90599055       6.32112004      14.56090482      -1.61799060      -0.89349985       0.02549740
H        7.07719092       2.94289459      13.93973784       1.00525671       0.47523018      -0.24330631
H        5.76892042       2.22628922      14.12270941      -0.01867298       1.81469785      -0.18082349
H        4.30476349       5.78882154      13.23220806       0.41342848      -0.12525228       0.49024563
H        5.58356791       4.68000651      13.35628599      -1.54198231       0.99497370      -0.70917552
H        7.01278338       7.24610148      11.22375615       0.70166036       2.24672655      -0.04613209
H        6.02826778       6.21704493      11.75877611       1.17007319      -0.51446951      -1.17880843
H        3.11882829       7.62037959      14.68682875       1.48906099      -0.90555450       0.91550151
H        4.11201303       6.60663540      15.42243211      -0.15959695      -0.98913147       0.92313377
H        4.35380312       9.21607749      14.03384714       0.31268256       1.52591621      -0.40798359
H        4.29515312       0.78330308      12.95281368      -0.07487054      -0.56750764       0.00389452
H        2.99113183       3.25008540      15.70264415       0.25432072      -0.24043647      -0.21654884
H        2.50305961       2.03431106      14.74856150      -0.08277230       0.77817146       1.32255873
H        3.03494582       7.09130993      10.15040891      -0.41664730      -0.55264262       0.21880296
H        4.59757361       7.28329089      10.19356288       0.86845564      -0.58891092       0.29995998
H        9.81450851       3.19157676      13.87443877      -0.35302311      -0.34165665      -0.03047314
H        9.38796489       3.52858333      12.45126836      -1.07925618      -1.09774353       1.30669665
H       10.85269886       4.17482498       9.31674270      -0.05990176      -0.81894694      -1.81488035
H        0.24087394       5.35442809      10.12636768       1.32065362       1.76564318       0.13405983
H        9.62317801       4.66899107      10.56123034       0.06259948      -0.49399870       0.06311392
H        7.99223581       5.28117785      10.85857545      -0.28121171      -0.77587800       0.46567420
H        1.05890304       7.30841492      10.88320513      -0.26289611       0.92006511      -0.01494578
H        1.42605648       5.92361180      11.65335251       0.03078169       0.88411350      -1.18478512
H        8.07398766       9.25970904      10.15646089      -1.47773374      -0.02061219       0.22646152
H        9.07212490       9.08203692       8.90137310      -0.26055977      -0.16420518      -0.27686155
H        0.88642430       7.81617481      15.95095148       0.62103924      -0.60415958      -0.17806567
H        1.27973739       9.00999615      15.11099028       0.90635666      -0.95786327      -0.16930653
H        8.77865739       0.29482297      14.20199442      -1.16737263      -0.30240676      -1.03262586
H        7.55951875       9.26389959      14.73000888      -0.16400845      -0.15403149      -0.41897532
H        4.38838040       4.16904896      11.71157452      -1.02919461      -0.90820505      -0.07506932
H        3.78824475       4.13448548      10.38660100      -0.44946613       0.57476460      -1.89636263
H        4.16222668       0.55233386       9.85631954       0.08027328       0.41698630       0.26749637
H        4.31344756       1.99776150      10.54567192       0.01536489       0.00809851       0.04378836
H        6.97721428       0.24208446      12.14559373       0.54283501       0.78314874       1.87751620
H        5.84876197       0.13732644      11.05318641       1.65063851      -0.22719435       0.41650205
H        9.70087812       7.36306471      16.47790599       0.63808345      -1.64312498       0.94337110
H       10.19895320       5.93254254      17.31790061      -0.07298723       2.36932354      -1.46255081
H        5.07393995       4.41596075      17.08653892       0.04397545      -0.05116999      -0.04094516
H        5.51729653       3.94208519      15.66599585       0.34133575      -0.17975200      -0.30458628
H        1.09895013       9.59792575      12.62767396      -0.44938309       1.07799553       0.76619845
H        0.15348345       1.05953013      13.23659894       0.38358145      -0.22957952      -0.12936474
H        6.76717724       8.49332482      16.62072870       1.40625420      -1.13517270      -0.98798798
H        7.36275042       7.39674194      15.50979927      -0.14778802       0.14825832       0.80294633
H        0.59638959       3.50617489      15.53911660      -0.46972508       0.94331844      -0.94026564
H       10.58960032       4.66261466      15.10358775      -0.39241304       0.59757639       0.97917058
H       10.22520390       7.23989685      13.04672793       0.60171392      -0.21104901       0.08172708
H        8.85758468       7.79185664      13.33977914      -0.15053717       0.41048927       0.40044218
O        1.63460290       5.03038482      12.93351278       1.04899751      -1.04999486      -0.37546602
O        0.57222850       9.08089135      10.93393780       0.62288292       0.52851909      -0.47484500
O        7.19229510       2.91676473       9.68834263      -0.32751406       0.87301354       3.11198640
O        7.98748445       5.84081808      14.73873651       1.02912664       0.31259914       0.84192191
O        6.14874805       3.18823269      14.06943440      -0.69059719      -2.52803742       0.36161571
O        5.00915507       5.29939950      12.75343479       1.15082418      -0.70151559       0.51878681
O        6.75740540       6.36261949      11.02664390      -1.60638806      -1.48303459       0.99922606
O        4.10312212       7.32297344      14.80155209      -1.12015411       1.51667882      -1.82513949
O        4.45171789       0.56209602      13.89469064      -0.03625944      -0.68258833       0.24528200
O        2.32396066       2.54170305      15.60570590      -0.24567708      -0.62601026      -0.92494979
O        3.78020558       7.64155628       9.86296071      -0.24068649       1.14487556      -0.35498195
O        9.08679743       2.95434646      13.24524375       1.37742514       1.01881212      -0.82136380
O       10.82731873       4.57711500      10.17714103      -1.23334554      -1.07762920       1.34952073
O        8.58020254       4.44704070      11.04199091       1.28927883       2.96133253       0.76773014
O        1.42486753       6.42891281      10.72907140       0.14393195      -1.51516482       1.08989943
O        8.97473913       9.28495197       9.85281062       2.37878254       0.14981874       0.62021961
O        1.65846009       8.12222526      15.41453485      -1.78396231       1.65538048       0.14818958
O        7.89969222       9.58648653      13.85421849       1.46118889       0.76232475       1.36902074
O        3.69536361       3.61956166      11.17606782       1.08994671       0.32425862       1.60735194
O        4.57001873       1.04875383      10.60438286      -0.43031948      -0.66563292      -0.08698433
O        6.78727601       9.43456682      11.35159691      -2.24942392      -0.67044222      -2.29982724
O       10.45197378       6.71314980      16.69224722      -0.74311236      -0.68316561       0.60331058
O        4.79117603       4.36100502      16.15953966      -0.61615481       0.42104458       0.37793110
O        0.98329577       0.56982782      13.42251641      -0.01722710      -0.47755075      -0.40204366
O        7.60262899       8.10808637      16.18298480      -1.42636700       0.73013026       0.47350053
O        0.15268755       4.08285964      14.82718068       0.65905679      -1.64475022       0.31003834
O        9.62468502       7.38178541      13.79546143       0.62743212       0.70224596      -0.98882496
150
Lattice="11.14400287 0.0 0.0 0.0 9.65098959 0.0 0.0 0.0 36.32428018" Properties=species:S:1:pos:R:3:DFT_forces:R:3 DFT_energy=-790.40622014 pbc="T T T"
Pt       0.00000000       0.00000000       0.00000000       0.01440003      -0.07176501      -0.36736478
Pt       2.78600072       0.00000000       0.00000000      -0.03951537       0.01616141      -0.30105444
Pt       5.57200143       0.00000000       0.00000000      -0.07388491       0.01279064      -0.33640889
Pt       8.35800215       0.00000000       0.00000000      -0.02312280      -0.05035824      -0.29246526
Pt       1.39300036       2.41274740       0.00000000       0.04852769      -0.03463362      -0.29314096
Pt       4.17900108       2.41274740       0.00000000      -0.02540207      -0.01884806      -0.31063647
Pt       6.96500179       2.41274740       0.00000000       0.00405043      -0.04164028      -0.25456062
Pt       9.75100251       2.41274740       0.00000000       0.04697403      -0.02031242      -0.22209139
Pt       0.00000000       4.82549480       0.00000000      -0.09387550       0.04440919      -0.28972326
Pt       2.78600072       4.82549480       0.00000000      -0.00681492      -0.08294468      -0.33194297
Pt       5.57200143       4.82549480       0.00000000      -0.01092029      -0.01135625      -0.22797640
Pt       8.35800215       4.82549480       0.00000000       0.04146486       0.08411564      -0.34601614
Pt       1.39300036       7.23824219       0.00000000       0.07252454       0.00098671      -0.30510962
Pt       4.17900108       7.23824219       0.00000000      -0.10617756      -0.02194464      -0.29151021
Pt       6.96500179       7.23824219       0.00000000      -0.07275001       0.02467786      -0.20507958
Pt       9.75100251       7.23824219       0.00000000       0.13806861       0.07152626      -0.36918337
Pt       1.39300036       0.80424910       2.27476010       0.18314216       0.05492802      -0.20427756
Pt       4.17900108       0.80424910       2.27476010       0.09600892       0.11639412      -0.01539025
Pt       6.96500179       0.80424910       2.27476010       0.26304758       0.01505683       0.42785833
Pt       9.75100251       0.80424910       2.27476010      -0.27342570       0.11552953       0.66439881
Pt       0.00000000       3.21699650       2.27476010      -0.34275974       0.04786708       0.38914379
Pt       2.78600072       3.21699650       2.27476010      -0.07565051       0.23218421       0.28371506
Pt       5.57200143       3.21699650       2.27476010       0.08304668       0.05050868      -0.01034901
Pt       8.35800215       3.21699650       2.27476010       0.01972716      -0.01830134       0.34974158
Pt       1.39300036       5.62974390       2.27476010      -0.33617620      -0.04269332      -0.04754846
Pt       4.17900108       5.62974390       2.27476010       0.23303197       0.10527984       0.09325342
Pt       6.96500179       5.62974390       2.27476010      -0.04070383      -0.04370969       0.25789343
Pt       9.75100251       5.62974390       2.27476010       0.14733830      -0.28275918       0.36452706
Pt       0.00000000       8.04249129       2.27476010      -0.30816738      -0.17744671       0.11481828
Pt       2.78600072       8.04249129       2.27476010      -0.08134015      -0.23011416      -0.40412089
Pt       5.57200143       8.04249129       2.27476010       0.38708274      -0.18693463       0.02053483
Pt       8.35800215       8.04249129       2.27476010       0.03269640       0.10452771       0.24099611
Pt       0.12827940       1.55238706       4.51149521      -0.90682383       0.43942959       0.57990562
Pt       2.87577413       1.70147371       4.50725472      -0.24087642      -0.43351485       0.10889493
Pt       5.60982674       1.66713424       4.52551384      -0.64845536      -0.27777161       0.21622148
Pt       8.31381139       1.67269880       4.68391349       0.54671324      -1.11387697      -0.55780911
Pt       1.24275346       4.05826071       4.52461118       0.40280982      -0.18181866       0.20185277
Pt       4.19697769       4.06892322       4.51678548      -0.10665112      -0.34621038       0.26199151
Pt       6.95712254       4.03790736       4.56757191      -0.26835087       0.39591780      -0.06468295
Pt       9.58339905       3.91130780       4.66317124       1.70295775       0.66074511      -0.42449798
Pt      11.12263826       6.48173953       4.59002431      -0.07822879      -0.34431605      -0.55571335
Pt       2.78228564       6.32956832       4.49559717      -0.16069216       0.57803922       0.57804395
Pt       5.61010378       6.45995030       4.59268180       0.23456551      -0.47039241      -0.70872888
Pt       8.43532816       6.42963789       4.48591675      -0.47455397      -0.01300967       0.32042180
Pt       1.39923220       8.77333815       4.43856005       0.10497480       0.37339453       0.99347373
Pt       4.19475558       8.77605944       4.42043497       0.18228571       0.54477475       0.64398593
Pt       6.96854079       8.92960746       4.57057920      -0.01179568       0.21755652      -0.62284055
Pt       9.72128602       8.91384073       4.56908700       0.18685106       0.11688184      -0.18608488
Pt       0.14538878       9.64188012       6.91842266       0.08044044       0.17214388      -0.83829043
Pt       2.85800201       9.60866025       6.66065176      -0.30999488      -0.21138909       0.04075773
Pt       5.61382878       0.03454417       6.89841125       0.03884634      -0.02354445      -0.15667971
Pt       8.51420586       0.16918291       6.99148931      -0.79088758      -1.12012257       0.62122980
Pt       1.40057906       2.43048978       6.82852043      -0.28910209       0.14312294       0.34662089
Pt       4.16166669       2.41205272       6.95805644       0.53308063      -0.00184314      -0.06603224
Pt       6.96533467       2.40719624       6.89980755       0.20350760       0.53510609       0.30925818
Pt       9.82717422       2.41211671       7.08476861       0.36940431       0.87552931      -0.89887225
Pt       0.06618245       5.02836748       6.89492484      -0.76092232      -1.27010591       0.00864447
Pt       2.78056334       4.87255244       6.93019826       0.10463406      -0.21176582      -0.61073820
Pt       5.54745788       4.70756935       6.85633756       0.43814305       0.80263584      -0.00471808
Pt       8.45239241       4.86381608       6.94495137      -0.51381986       0.18284565      -0.77197824
Pt       1.46065772       7.18220556       6.93701815       0.13870624       1.18170275      -0.25422024
Pt       4.19584880       7.20985024       6.78561782       0.50069021       0.43014764       1.39799125
Pt       7.05958161       7.36965518       6.67815861       0.27400387      -0.74684697       0.47785128
Pt       9.74992645       7.36674782       6.85278941       0.27841912      -0.40771418       0.19747355
H        2.79105118       2.49700092       7.94343682      -0.20127297       0.07751446       0.12191493
H        4.99018163       0.72566833       8.17228923      -0.09039072       0.12509180       0.34983514
H        8.35766304       9.47046291       8.54274167      -0.47562247       0.15277228      -0.56551897
H        4.77578171       7.63285060       8.27733033      -0.58785031      -0.35307409      -1.14493205
H        1.16981518       3.96620195       9.10536191      -0.92055351       0.87769752       1.47767313
H        2.32034299       5.69105161      11.83181152       0.17070927       0.46776000      -0.53364365
H        1.70847181       4.58084501      12.77410040       0.05068529      -0.24989807      -0.29280307
H        9.64303284       9.42114008       8.95952864       2.02852360       0.46170457       1.04801969
H        0.14389683       9.25793094       9.45945172      -0.55085317      -0.00825699      -0.10236228
H        7.09828786       1.42252392      11.01136046      -1.07688411       1.41669007      -1.34491488
H        6.71152599       2.10396505       9.54194743       0.29950031      -0.28451976      -0.10064761
H        6.42424819       3.70764190      13.53393496      -0.22717853       0.32128308       0.05065706
H        5.61704583       5.09678199      13.44865064       0.68511384      -0.37230471       0.09648466
H        6.33998939       1.14590069      15.06743093       0.97886645       0.15069300       0.38231080
H        7.63030935       1.37694596      14.27978976      -0.15480086      -0.20724960       1.00940946
H        3.28651923       4.61272908       9.07946451       0.30557977       0.41370333       0.82290007
H        4.57390442       3.98001358       9.21417202       1.12404249      -0.79516313      -0.12091164
H        6.31214053       8.39172451       9.38789071       0.16198525      -0.85842899       0.31119947
H        6.52772873       6.93447662       8.88903011       0.09716032      -0.25310134      -0.70084436
H        3.74091929       6.80998908      13.51585310       1.39039712      -0.32919207      -0.54851456
H        4.89343809       7.19532501      12.54154909       0.21811955       0.99756667      -0.60941418
H        3.57190990       0.82404183      14.69547393      -1.45740676      -0.29384670      -0.67218850
H        1.99273683       0.67689754      13.96873732       1.54098916      -0.07050039       0.74344717
H        1.14524711       3.54024925      14.13775820       1.17477719      -0.47982212       0.06226736
H        2.64506953       3.10101158      13.52570497      -0.84513314      -0.31551495       0.00526416
H        2.35507160       7.46959977       9.19574434       0.13613772      -0.49169122       0.03882694
H        3.74628925       7.25871986       9.79570049       0.51769521      -0.12176708       0.06018252
H        8.88815112       1.92773383      11.83306943       0.06562863      -2.24398456       1.01744022
H        9.18895618       0.32802951      12.23180215       0.62598235       0.05895188      -0.22868769
H       10.28150864       1.78955241       9.69840845      -0.48627857      -1.01357324      -0.24709542
H        8.93491258       2.83200414       9.62706684       1.47145407      -0.50417639       0.43656718
H        8.68600448       4.88622181       8.89723976      -0.22150656      -0.08177125       0.61987133
H        7.32654434       5.08583458       9.70301619       1.30826864      -0.65889712       0.29972365
H        1.14023353       4.69586637      10.91309020       0.32741199       0.13206477       0.41920804
H       10.93100877       3.74997192       9.90461267       0.20388330       0.26462241       0.20397738
H        9.98878745       7.62471395       9.53981882      -0.02175318      -0.30371892       0.90215375
H        9.06946884       6.56139030      10.09872999       0.25325822       0.08579933       0.87739344
H        1.25916256       7.73593861      14.83175246      -0.30940983       0.03935912      -0.85254357
H        0.25075901       6.58663990      14.73819165      -0.28323334      -0.28070336      -0.16571270
H        8.26302182       8.41138165      13.20198408       1.65241846       0.32688986      -0.35778266
H        6.93759446       7.81465179      13.11920758      -0.94061464      -0.51689938      -0.31552194
H        2.79052307       1.96917479      10.91588027       0.12713018       0.25466222       0.39665435
H        3.38678428       3.30917127      11.30246651       1.72152060       3.58985073      -1.98977685
H        2.47567278       9.23364509       9.85851353       0.27974722       0.41093006       0.12375519
H        1.98225411       0.82570653       8.94326335       0.41871874      -0.46220993       0.89228630
H        3.93042484       0.51596063      11.46804275       2.23956148      -1.12568529       0.43293368
H        5.38282987       0.71249714      10.92989018      -0.58533008      -0.39917602       0.47908564
H       10.34794083       4.67773110      15.35632519      -0.24646958      -0.33276626      -0.10528340
H        9.56438404       6.11147150      15.20551332      -0.74334571      -0.27940855       0.31229784
H        2.37078375       6.23585635      16.75839010      -0.82271936      -0.81810242       0.70386348
H        3.12618801       5.47253478      15.54620310      -0.54180337      -0.54916354       0.43086780
H       11.03964876       0.09946262      13.14152013       0.98275805       1.64963335       0.31763722
H        0.81514793       1.10572642      12.41702910       0.35476050       0.46611452      -0.58052425
H        8.58919296       8.24467316      16.30717243       0.10379714       0.58346466       0.04035510
H        7.69750613       7.31500095      15.46294603       0.82756162       0.28482226       1.30720827
H        9.44603484       3.10912883      14.88482877       0.61913915      -0.59693037       0.40168951
H       10.68161646       2.15750488      14.72237605      -0.14267628       0.00770399      -0.08922659
H       10.68475896       7.91422047      13.35659038       0.23841030       0.20933791       0.22723311
H       10.12810988       7.96053538      11.85525086      -0.06743229       0.42588651       0.35276167
O        1.53635815       5.12447917      11.89346908       0.07464681       0.53097169       0.68441646
O       10.43664553       0.08391313       9.58825761      -0.61681627       0.05206157      -0.29769210
O        6.41499600       2.00647036      10.46408105       1.28943901      -1.03932978       1.35734150
O        6.50452112       4.67720686      13.62307947      -0.13342157      -0.05837708      -0.09761197
O        7.28821153       1.41252048      15.22387016      -0.69056009      -0.02128671      -1.54623886
O        4.00546109       4.50532688       9.78076758      -1.17714247       0.48862217      -0.31380889
O        6.42234836       7.45128750       9.69879603      -0.32232942       1.09518391       0.81946160
O        4.54247387       6.44775289      13.01692240      -2.16773150      -0.29673985       1.08097264