146
Lattice="11.144002871499989 0.0 0.0 0.0 9.650989586565721 0.0 0.0 0.0 36.32428018182138" Properties=species:S:1:pos:R:3:move_mask:L:1:momenta:R:3:forces:R:3 stress="0.013787457479103666 -0.002323667920749966 0.0009363987778121164 -0.002323667920749966 0.016169221807215 -0.00039220640866487064 0.0009363987778121164 -0.00039220640866487064 -0.002933975270439494" energy=-798.2400405423755 pbc="T T T"
Pt       0.00000000       0.00000000       0.00000000  F       0.00000000       0.00000000       0.00000000       0.01892082       0.01748971      -0.19215293
Pt       2.78600072       0.00000000       0.00000000  F       0.00000000       0.00000000       0.00000000       0.02573906       0.01658887      -0.21808786
Pt       5.57200144       0.00000000       0.00000000  F       0.00000000       0.00000000       0.00000000      -0.00025109      -0.00016234      -0.22170116
Pt       8.35800215       0.00000000       0.00000000  F       0.00000000       0.00000000       0.00000000      -0.01779602      -0.04105887      -0.24919731
Pt       1.39300036       2.41274740       0.00000000  F       0.00000000       0.00000000       0.00000000       0.02802178      -0.00461953      -0.26248754
Pt       4.17900108       2.41274740       0.00000000  F       0.00000000       0.00000000       0.00000000       0.04958238      -0.00374593      -0.23786296
Pt       6.96500179       2.41274740       0.00000000  F       0.00000000       0.00000000       0.00000000      -0.02298580      -0.03901105      -0.28533323
Pt       9.75100251       2.41274740       0.00000000  F       0.00000000       0.00000000       0.00000000      -0.00929254      -0.01078880      -0.15022582
Pt       0.00000000       4.82549479       0.00000000  F       0.00000000       0.00000000       0.00000000      -0.00424245       0.01935599      -0.22516772
Pt       2.78600072       4.82549479       0.00000000  F       0.00000000       0.00000000       0.00000000      -0.01550234      -0.01867051      -0.18689113
Pt       5.57200144       4.82549479       0.00000000  F       0.00000000       0.00000000       0.00000000      -0.00584807      -0.01943958      -0.25118730
Pt       8.35800215       4.82549479       0.00000000  F       0.00000000       0.00000000       0.00000000       0.00096985      -0.01714523      -0.17555736
Pt       1.39300036       7.23824219       0.00000000  F       0.00000000       0.00000000       0.00000000       0.02243336       0.02620298      -0.19645431
Pt       4.17900108       7.23824219       0.00000000  F       0.00000000       0.00000000       0.00000000      -0.00476934      -0.00947319      -0.20833338
Pt       6.96500179       7.23824219       0.00000000  F       0.00000000       0.00000000       0.00000000       0.01055922       0.00583803      -0.17963724
Pt       9.75100251       7.23824219       0.00000000  F       0.00000000       0.00000000       0.00000000       0.00264186      -0.00931870      -0.24061423
Pt       1.39300036       0.80424913       2.27476006  F       0.00000000       0.00000000       0.00000000      -0.21968783      -0.12526785       0.25058811
Pt       4.17900108       0.80424913       2.27476006  F       0.00000000       0.00000000       0.00000000      -0.09984334      -0.13964892      -0.27058277
Pt       6.96500179       0.80424913       2.27476006  F       0.00000000       0.00000000       0.00000000      -0.03988245       0.10190167       0.41645284
Pt       9.75100251       0.80424913       2.27476006  F       0.00000000       0.00000000       0.00000000       0.05111984       0.28862598       0.03935000
Pt       0.00000000       3.21699653       2.27476006  F       0.00000000       0.00000000       0.00000000      -0.19224355      -0.06466549       0.46541604
Pt       2.78600072       3.21699653       2.27476006  F       0.00000000       0.00000000       0.00000000      -0.02442672       0.19457775      -0.01514080
Pt       5.57200144       3.21699653       2.27476006  F       0.00000000       0.00000000       0.00000000      -0.34449132      -0.04214053       0.09435804
Pt       8.35800215       3.21699653       2.27476006  F       0.00000000       0.00000000       0.00000000       0.25353855       0.10651831      -0.20606451
Pt       1.39300036       5.62974393       2.27476006  F       0.00000000       0.00000000       0.00000000       0.09960130      -0.06943789      -0.03209828
Pt       4.17900108       5.62974393       2.27476006  F       0.00000000       0.00000000       0.00000000       0.03006342       0.08477170       0.37952168
Pt       6.96500179       5.62974393       2.27476006  F       0.00000000       0.00000000       0.00000000       0.03924403       0.15291994       0.10175151
Pt       9.75100251       5.62974393       2.27476006  F       0.00000000       0.00000000       0.00000000       0.03561302      -0.08818054       0.05566867
Pt       0.00000000       8.04249132       2.27476006  F       0.00000000       0.00000000       0.00000000       0.01531120       0.04477180       0.04574721
Pt       2.78600072       8.04249132       2.27476006  F       0.00000000       0.00000000       0.00000000      -0.07878113      -0.16072267      -0.06508708
Pt       5.57200144       8.04249132       2.27476006  F       0.00000000       0.00000000       0.00000000       0.13123002      -0.02537725       0.09689705
Pt       8.35800215       8.04249132       2.27476006  F       0.00000000       0.00000000       0.00000000      -0.14826220       0.17951819      -0.08476319
Pt       0.02998312       1.61461391       4.59322116  T      -1.59827105      -3.18655290      -1.89330509      -0.08941476       0.36824481       0.05959287
Pt       2.73105058       1.65133025       4.47722779  T      -1.48106890       0.77549174      -0.47510497      -0.46289570      -0.26252837       0.77291697
Pt       5.39593511       1.58145643       4.51643832  T      -1.48241868       1.31768352       0.55078552       1.10857794       0.24190957       0.16035841
Pt       8.36870892       1.70616919       4.51120174  T       1.49286254      -2.83270923       1.22539031      -0.28488594      -0.62957223       0.12009453
Pt       1.28820221       4.04024967       4.54313354  T       3.80056162       6.24218575      -1.68748372       0.36139880      -0.39173629       0.60288171
Pt       4.10366545       4.07938091       4.55896142  T       1.03748997       2.63967642      -0.96659977       0.47430890      -0.29155766      -0.49549529
Pt       6.92891670       3.99911585       4.43927567  T       0.68441570       3.55594800      -2.97290168      -0.11512567       0.50398024       0.96458456
Pt       9.69100123       4.16648209       4.61350543  T      -3.31846046      -7.86947162       2.51309595       0.20621541      -0.93880987      -0.60006700
Pt       0.03245277       6.41386599       4.52447877  T      -3.76860932       2.65636597       3.25222318      -0.43713298       0.67332262       0.15391008
Pt       2.74730059       6.45260262       4.56640734  T      -0.12424060       0.05311652      -1.24304107       0.63987666      -0.11108536      -0.53578442
Pt       5.61604636       6.46767684       4.54788895  T      -3.17067508      -0.56596673      -0.59814623      -0.34806295      -0.39309421      -0.26473152
Pt       8.43606758       6.54156781       4.51057772  T      -0.94589396      -3.68483560      -5.17820889      -0.70990225      -0.18544306       0.57088636
Pt       1.39942592       8.78744347       4.54550962  T       1.30149010       1.52667579       6.51663041      -0.44260667       0.98852420      -0.15894833
Pt       4.14028353       8.78572792       4.49280345  T       0.78849130       4.37177163      -5.67802037       0.26264404       0.41729114       0.73985042
Pt       6.94806659       8.91502280       4.55889023  T      -1.17919125       1.16687363      -3.27616687      -0.03078690       0.04895886       0.00839402
Pt       9.70274808       8.91623512       4.47928155  T       2.75324072       0.28696503       6.18994737       0.37231453      -0.03636034       0.69761895
Pt      -0.17758857       0.07654967       6.80653545  T       0.58521923       0.74037567      -3.79044391       0.66605449       0.27158598       0.20545455
Pt       2.73601565       0.06034977       6.85866759  T       3.12622061      -1.43341575      -0.88759294      -0.09365491      -0.08148506      -0.28519115
Pt       5.54872276       0.07312630       6.87658428  T      -2.05420880       2.11319476       0.88359599      -0.41018940      -0.26873674      -0.21449326
Pt       8.23328952       0.02880628       6.96142769  T       0.55786498       1.52855269       0.27345064       0.42321273      -0.09816521      -0.43929505
Pt       1.29106360       2.60227926       7.01853337  T       4.98590190       0.72680195       1.47182834       0.21648525      -0.69736489      -0.25847709
Pt       4.09413523       2.37392417       6.80596137  T      -1.87901131       1.39860625      -4.82862413       0.07724958       0.58807796      -0.02991123
Pt       6.90016195       2.45438295       6.76887877  T       2.56285581       0.68891512      -2.50478735      -0.28086481       0.05098100      -0.11663037
Pt       9.59915904       2.48532206       6.79972621  T      -0.27861333      -0.85244296       2.43180767       0.44410083      -0.21497217       0.19451498
Pt      -0.09303417       4.93116114       6.94675472  T       1.28446803      -7.05812946       0.06457482      -0.05607812       0.39135748       0.73446373
Pt       2.82997135       4.90978941       6.74519667  T       3.23466919       0.26938516      -0.11032528      -0.69341703      -0.06631413       0.75542503
Pt       5.49016917       4.88333018       6.85377455  T       0.08410418      -6.40855839       0.98732570       0.51047149      -0.28599962      -0.27245851
Pt       8.27290117       4.90026929       6.83132712  T       2.75830648       0.11807153       3.52809266      -0.42560156       0.20142531      -0.07999467
Pt       1.40798629       7.32452958       6.78648666  T      -0.42573369      -2.38135549       3.32204360      -0.01358726      -0.11026241       0.71995064
Pt       4.16507380       7.32174739       6.97692336  T       0.25575407       1.65012236      -0.87753066      -0.47517571       0.18340943      -0.76313684
Pt       6.83856114       7.25246880       6.79155852  T       1.00655916      -2.56504326       0.85303426       0.99307125       0.38893036       0.16704106
Pt       9.85343601       7.35557453       6.91156937  T      -4.56554258       4.20481901      -0.72248668      -1.08557717      -0.19168976      -0.16867319
H       10.48084181       5.64782201       8.32157690  T       0.22040268      -0.04929815       0.24031679       0.28926901      -0.25518945      -0.64981924
O        1.58466145       7.31103729      12.12478986  T       0.24817320      -0.26717523      -0.12343908       0.90054430      -2.14306049       1.76195636
H        1.43686428       8.22736543      12.00091588  T      -0.21573701      -0.01307058      -0.05246123      -0.27401321       2.03231773       0.20529843
H        1.91704011       7.12852938      13.07695880  T       0.04928756      -0.08674966       0.33348110      -0.80966669       0.74473781      -1.55365188
O        5.09178593       6.75947042      15.46856064  T       0.70985499       0.80866377      -0.07695893       1.07336910       1.44959985       0.50771106
H        5.17573853       5.98558792      14.93419537  T      -0.10660887       0.39460536       0.09507082       0.23406109      -1.64601698      -1.03163435
H        4.18256259       6.77478338      15.73387345  T       0.16103643      -0.08551192      -0.13698828      -1.36398390       0.11046489       0.39780598
O        4.36447535       4.75088400      11.33284821  T       0.58417258       0.44148617      -1.04727584      -0.05915083       2.06534901       0.55173613
H        4.62925249       4.02801893      10.72177538  T       0.08321989       0.28874462       0.12026411       0.55365688       0.05174651      -0.25399903
H        4.62047591       5.67392986      10.93515267  T      -0.05397759       0.04266986      -0.13129852       0.37521383      -1.86322144      -0.11154190
O       -0.18052748       8.89105294      10.35694380  T       0.40109185       0.18082160      -0.19532037       0.28074738      -0.36681668       0.24650655
H       -0.78758248       9.61292121      10.13704260  T      -0.13023843       0.17360105      -0.18068448      -1.24185464       0.93596335       0.29282933
H       -0.24189581       8.29836044       9.60128933  T       0.06283024       0.42867554       0.23693748       0.01257243      -0.69433864      -0.66552142
O       12.86785004       2.78009863       9.10420364  T      -0.38008187      -0.65946937      -0.52112733      -1.13370105       0.82846588       0.12535561
H       12.69043062       1.80278685       9.74860374  T      -0.03907232      -0.20095185       0.07463004       1.02108808       0.56524050      -0.86950295
H       12.39745749       3.65063824       9.34594582  T      -0.20820812       0.04784318      -0.24750410       0.75510393      -1.30470075      -0.11959754
O       12.75396890       7.24254042      15.25463702  T       1.78583520       0.30951225      -0.61403666      -0.46675757      -2.09274328      -0.15032738
H       12.94691046       6.18198996      15.25354550  T      -0.00967742       0.27563364       0.08601052      -0.88309004       2.26237547      -0.02861823
H       11.75040701       7.36703775      15.21844347  T      -0.37757531      -0.14665615      -0.08011275       1.16537825      -0.67292900      -0.09050353
O        7.45079943       1.41603041      13.70944301  T       0.50624394      -0.51821936       0.50336407      -0.08759028      -1.08699762       0.33698420
H        6.79863837       2.13784217      13.67386471  T      -0.16051312       0.27914639      -0.04982554      -0.08775267       0.15674519      -0.15943367
H        6.92564288       0.58923032      13.96502252  T      -0.16126219       0.07040750      -0.25926209       0.18991160       1.06261384      -0.47925999
O        5.75096748       4.30562717      13.56445651  T       0.10430540      -0.03748988       1.08382281       0.22899765      -0.08580435       0.76954187
H        5.14701007       4.62539920      12.85554770  T      -0.20517306      -0.15339119      -0.26024292      -0.31506197      -0.39347553      -0.53862689
H        6.46187347       4.96450589      13.55469531  T       0.42018662      -0.12575541       0.25008564       0.59629740       0.41542312      -0.13943355
O        7.48257791       8.22481857      10.16843132  T       1.33156256      -1.88389770      -0.10142182       1.40386255      -2.52391813       2.36690614
H        7.66647899       8.62929690       9.33994258  T      -0.07398725      -0.01432858      -0.13066421       0.82167622       0.79712957      -2.14035280
H        8.27139851       7.50685490      10.36968691  T       0.01197744       0.07946262       0.11890155      -1.91131632       1.41594107      -0.54444115
O        7.35872658       6.70990975      12.97342631  T      -0.14206398      -0.61458979       0.42717752      -1.16646824       1.18041053       0.12605478
H        7.81681129       6.53134253      12.12079946  T      -0.01569061      -0.10063243       0.15025985       0.00601515      -0.17895096      -0.24591512
H        6.74336675       7.49854403      12.81958615  T      -0.00610763      -0.08753753      -0.16335805       1.04655604      -1.15668949       0.23792623
O        5.70707831       0.47522482      10.04527721  T       0.23088923      -0.26608883       0.00885924       1.24800109      -0.19760740       0.99702425
H        5.01845184      -0.11330302       9.73246733  T      -0.06971673       0.63281604       0.16711096      -0.49256656      -0.59825033      -0.17696476
H        6.44948460      -0.09804121      10.45372031  T      -0.18167392      -0.06317714       0.01752045      -1.12575046       0.62662532      -0.57401208
O        4.73460850       2.47890785      15.37085033  T       0.30949901       0.01373141       0.01163636      -2.24562660      -1.98019610       1.66778988
H        5.37510992       3.02128023      14.98853583  T      -0.12028192      -0.16045658       0.17062090       1.92409209       2.03845508      -1.49366548
H        5.09501666       1.57427945      15.35034536  T      -0.07306005       0.23419786      -0.14079969      -0.17533471      -0.09461728      -0.06615950
O        5.25246585       6.69502165       9.69730438  T       0.36502822       0.97766198      -0.75350114      -0.62146149      -0.19140013      -0.34114255
H        5.33473365       6.48463606       8.72200271  T      -0.47169072       0.06575004       0.26437426      -0.34269863      -0.33605738       0.44858425
H        5.98439500       7.31931595       9.80437394  T      -0.11636865       0.29295637       0.02930535       0.93650974       0.49084335       0.59628139
O       10.14744045       0.41032205      13.79094742  T       1.43400786       0.47157548      -0.72214931      -0.64322823       0.03248833      -0.09916482
H        9.26846459       0.88972269      13.85598223  T       0.12901551      -0.10002679       0.14048906       0.60494592      -0.78175005       0.20491305
H       10.05617116      -0.51957034      14.11933893  T       0.11809452      -0.05750283      -0.12993647      -0.24450497       0.63309976      -0.12303326
O        8.16631858       3.73101028       9.87067799  T      -0.61342647      -0.22772267       0.72439405       1.02965292       0.33592910      -0.22731082
H        7.24626282       3.46250270       9.93502478  T      -0.10482024      -0.20376687       0.27310351      -1.64476783      -0.23723878       0.06151359
H        8.16825446       4.22521337       9.00375020  T       0.06100066       0.12934033      -0.10309696       0.21332762      -0.37103928      -0.24948244
O        2.06004621       5.42821915      10.48907465  T       0.51740823      -0.28168197      -0.09698578       0.30398474       0.39542837      -0.27757389
H        1.95643347       6.35011186      10.83915523  T       0.05073133       0.08096066       0.03982593      -0.78085882       0.01352946       0.04631121
H        2.93916772       5.25963377      10.94329055  T      -0.21876384      -0.19374527      -0.05299126      -0.17366827      -1.16032528      -0.32012025
O       11.13666271       4.11207387      11.16310055  T       0.70610810      -0.19352056       1.50714986      -0.49325842       0.82760895       1.45213385
H       10.92177214       3.31657891      10.68808246  T       0.01731169      -0.13075477      -0.08509640      -0.08159993      -0.90886143      -0.71613337
H       12.01983231       4.56131192      10.98182123  T      -0.11722310       0.05162102       0.16846549       0.28751729       0.01031818      -0.42829951
O        5.28365625       9.19690518      14.09731075  T       1.64893259       1.08664317      -0.30220379       2.14457955      -0.54280692       0.67161833
H        4.45428319       9.34310476      13.66407499  T       0.06562329       0.21194502      -0.16016682      -1.52819337       0.06751197      -0.41168784
H        5.32770238       8.26889108      14.47089128  T      -0.03969846       0.00787592      -0.13030172      -0.51953153       0.51846437       0.02461582
O        8.91440321       5.96563114      10.86539415  T       1.21997877      -0.75264569       0.38388434       0.46821423       1.04775079       0.49527566
H        8.65235608       5.04305091      10.57755828  T       0.11718410      -0.19906224      -0.07497358      -0.04154854      -0.11029393       0.10298515
H        9.78521583       5.89361276      11.32172870  T       0.22482131      -0.10812017       0.02986689      -0.25116086      -0.28322423      -0.45628930
O        5.55373978       2.98394799       9.64338818  T       0.66713732      -1.20323491       0.26571970      -0.21614356       0.84652222       0.47462920
H        4.89257026       3.21829667       8.95160265  T       0.17824012      -0.13046320       0.34716407       0.21766218      -0.36709727      -0.26794321
H        5.50499910       2.01343325       9.85554924  T       0.19638776       0.06509907       0.16151998      -0.05635685      -0.39981646      -0.17169821
O        1.91711401       0.54301064      10.01623313  T       0.91877960       0.21732513       0.12069395      -0.84554285       0.74049894       0.29674866
H        2.07654864       0.22060348       9.10728591  T       0.28983355       0.11132015      -0.14461270       0.83852475      -0.08202631      -0.86146241
H        0.97654489       0.14252875      10.09348112  T       0.09384358      -0.05162189      -0.04137248       0.30941497      -0.68967198       0.84506983
O        9.51438572       1.43638847      10.65918409  T      -0.02965677       1.01872299       0.18342952      -1.83435226       0.84690867       1.13883054
H        9.25644878       1.30862488      11.65838632  T      -0.13834378      -0.04005068       0.22236176       0.44465120       0.30648849      -2.34284476
H        8.79164130       2.05952742      10.22135111  T       0.21061034       0.13193654      -0.03238587       1.76201296      -1.07716233       1.08491466
O        9.46687434       4.31814807      15.22518981  T       0.78077180      -0.01883767      -0.51591220       1.08326960       1.36659127       0.29784899
H       10.16674079       3.88771804      14.71197909  T       0.07344310      -0.17398083       0.07397885       0.44896619      -0.27149920      -0.25176906
H        8.74908481       3.71646684      15.18720048  T      -0.06616729       0.02764717       0.06621029      -1.52384025      -1.18483156      -0.07368666
O        2.03680951       4.47428006      15.04623760  T       0.86775481       0.37917824       0.90406777      -0.66636560      -2.88254887      -0.53844209
H        1.50948173       3.61977292      14.64705738  T       0.09852710      -0.01919740      -0.10056731       0.60624584       2.28907441       0.38670991
H        2.77365029       3.93735039      15.42464598  T       0.12747110       0.35393294       0.04122715       0.20714178       0.64785862       0.01063144
O        2.24188261       0.12778164      14.31144420  T       0.88389317       0.01220439      -0.05727020       0.06167367      -0.88805762      -0.07867508
H        2.18999548       0.93524074      14.83615113  T       0.01910139      -0.24628577      -0.16616481      -0.01533278       0.18753275       0.23260652
H        2.03602692      -0.65561308      14.89826161  T      -0.19241618      -0.36819988       0.27428118       0.24357661       0.61381925      -0.40626591
O        9.73490861       7.16057457      14.64865527  T      -0.11821006      -0.87753955      -0.40850969       0.68546751       0.32660384       1.10730590
H        9.49146345       6.37827735      15.19464312  T       0.03738964       0.31364755      -0.37318766       0.04877607       0.02805039      -0.28935136
H        9.39003560       6.94492392      13.78157468  T       0.10399968       0.12353194       0.01966165      -0.54733110      -0.19806853      -0.67995251
O       11.65252625       2.59504821      13.64262910  T       1.18725969      -1.28814189      -1.68591706      -0.01699675      -0.83178266       0.29987425
H       11.67148523       3.01075637      12.76875501  T      -0.00917057      -0.26757453       0.00943525      -0.07163506       0.63079095      -0.68614296
H       11.44489599       1.62066914      13.45837311  T      -0.00046255       0.11297881      -0.13330799       0.04022867       0.77473933       0.77485132
